   * xtb version 6.6.1 (8d0f1dd) compiled by 'conda@1efc2f54142f' on 2023-08-01
          program call               : xtb coord.xyz --uhf 0 --charge 1 --opt --pop

   ID    Z sym.   atoms
    1    6 C      1-6, 11, 12, 15, 16
    2    1 H      7-10, 13, 14, 17-20

          :  Hamiltonian                  GFN2-xTB          :
 * total energy  :   -25.9643521 Eh     change       -0.4677549E-08 Eh
 * total energy  :   -25.9727862 Eh     change       -0.8434126E-02 Eh
 * total energy  :   -25.9742398 Eh     change       -0.1453573E-02 Eh
 * total energy  :   -25.9742794 Eh     change       -0.3969037E-04 Eh
 * total energy  :   -25.9742857 Eh     change       -0.6215016E-05 Eh
 * total energy  :   -25.9742871 Eh     change       -0.1404418E-05 Eh
   *** GEOMETRY OPTIMIZATION CONVERGED AFTER 6 ITERATIONS ***

 final structure:
================
20
 xtb: 6.6.1 (8d0f1dd)
C           -1.39651734364816        0.22678563087533       -0.00000000000238
C            1.39651295122111       -0.22678357429528        0.00000000000129
C           -0.47570469885584        1.30612141681176       -0.00000000000154
C            0.47570267859655       -1.30611883019334        0.00000000000001
C            0.87386119428085        1.09092935457664        0.00000000000157
C           -0.87386377063152       -1.09092830085537       -0.00000000000093
H           -0.85891618836122        2.31579193529678       -0.00000000000064
H            0.85891690611400       -2.31578846316329       -0.00000000000026
H            1.54504332391790        1.93454538359522        0.00000000000193
H           -1.54504365889076       -1.93454586568013       -0.00000000000113
C            2.79912910468647       -0.51844111634853        0.00000000000076
C           -2.79912472661850        0.51844262158968       -0.00000000000201
H            3.05524021901010       -1.57089912014778       -0.00000000000040
H           -3.05523565412899        1.57090124025121       -0.00000000000126
C            3.80031730528094        0.38738476930465       -0.00000000000015
C           -3.80031728479606       -0.38738870325527        0.00000000000247
H            3.63462559644459        1.45192531184068        0.00000000000061
H           -3.63462530994439       -1.45192975804004        0.00000000000126
H            4.82897999227818        0.06701179202969       -0.00000000000075
H           -4.82898063595524       -0.06701572419259        0.00000000000156

          :  Hamiltonian                  GFN2-xTB          :
         :: total energy             -25.974287063476 Eh    ::
         :: gradient norm              0.000082579584 Eh/a0 ::
         :: HOMO-LUMO gap              2.705446429265 eV    ::
         :: SCC energy               -26.484484673820 Eh    ::
         :: -> dispersion             -0.015114756615 Eh    ::
         :: repulsion energy           0.510246108869 Eh    ::

    * Orbital Energies and Occupations

         #    Occupation            Energy/Eh            Energy/eV
      -------------------------------------------------------------
         1        2.0000           -0.8297986             -22.5800
       ...           ...                  ...                  ...
        13        2.0000           -0.6688214             -18.1996
        14        2.0000           -0.6588225             -17.9275
        15        2.0000           -0.6553034             -17.8317
        16        2.0000           -0.6490532             -17.6616
        17        2.0000           -0.6343979             -17.2628
        18        2.0000           -0.6333106             -17.2333
        19        2.0000           -0.6222919             -16.9334
        20        2.0000           -0.6007229             -16.3465
        21        2.0000           -0.6005479             -16.3417
        22        2.0000           -0.5927214             -16.1288
        23        2.0000           -0.5869883             -15.9728
        24        2.0000           -0.5866652             -15.9640
        25        1.0000           -0.5541405             -15.0789 (HOMO)
        26                         -0.4547171             -12.3735 (LUMO)
        27                         -0.3975989             -10.8192
        28                         -0.3944595             -10.7338
        29                         -0.3302653              -8.9870
        30                         -0.2541651              -6.9162
        31                         -0.0622726              -1.6945
        32                         -0.0561132              -1.5269
        33                         -0.0538506              -1.4653
        34                         -0.0191156              -0.5202
        35                         -0.0156766              -0.4266
        36                         -0.0106341              -0.2894
       ...                                ...                  ...
        50                          0.4975759              13.5397
      -------------------------------------------------------------
                  HL-Gap            0.0994233 Eh            2.7054 eV

     #   Z          covCN         q      C6AA      α(0)
     1   6 C        2.969     0.065    26.535     8.449
     2   6 C        2.969     0.065    26.535     8.449
     3   6 C        2.918    -0.010    28.274     8.720
     4   6 C        2.918    -0.010    28.274     8.720
     5   6 C        2.912    -0.008    28.229     8.712
     6   6 C        2.912    -0.008    28.229     8.712
     7   1 H        0.926     0.088     1.895     2.153
     8   1 H        0.926     0.088     1.895     2.153
     9   1 H        0.926     0.088     1.898     2.154
    10   1 H        0.926     0.088     1.898     2.154
    11   6 C        2.897    -0.002    28.078     8.688
    12   6 C        2.897    -0.002    28.078     8.688
    13   1 H        0.925     0.095     1.835     2.118
    14   1 H        0.925     0.095     1.835     2.118
    15   6 C        2.838    -0.030    28.743     8.786
    16   6 C        2.838    -0.030    28.743     8.786
    17   1 H        0.926     0.102     1.767     2.079
    18   1 H        0.926     0.102     1.767     2.079
    19   1 H        0.926     0.113     1.673     2.023
    20   1 H        0.926     0.113     1.673     2.023

Wiberg/Mayer (AO) data.
largest (>0.10) Wiberg bond orders for each atom

     #   Z sym  total        # sym  WBO       # sym  WBO       # sym  WBO
 ---------------------------------------------------------------------------
     1   6 C    3.957 --     6 C    1.257     3 C    1.257    12 C    1.214
     2   6 C    3.957 --     5 C    1.257     4 C    1.257    11 C    1.214
     3   6 C    3.981 --     5 C    1.572     1 C    1.257     7 H    0.961
     4   6 C    3.981 --     6 C    1.572     2 C    1.257     8 H    0.961
     5   6 C    3.981 --     3 C    1.572     2 C    1.257     9 H    0.958
     6   6 C    3.981 --     4 C    1.572     1 C    1.257    10 H    0.958
     7   1 H    0.992 --     3 C    0.961
     8   1 H    0.992 --     4 C    0.961
     9   1 H    0.992 --     5 C    0.958
    10   1 H    0.992 --     6 C    0.958
    11   6 C    3.943 --    15 C    1.690     2 C    1.214    13 H    0.956
    12   6 C    3.943 --    16 C    1.690     1 C    1.214    14 H    0.956
    13   1 H    0.991 --    11 C    0.956
    14   1 H    0.991 --    12 C    0.956
    15   6 C    3.820 --    11 C    1.690    19 H    0.969    17 H    0.964
    16   6 C    3.820 --    12 C    1.690    20 H    0.969    18 H    0.964
    17   1 H    0.990 --    15 C    0.964
    18   1 H    0.990 --    16 C    0.964
    19   1 H    0.987 --    15 C    0.969
    20   1 H    0.987 --    16 C    0.969
 ---------------------------------------------------------------------------

molecular dipole:
                 x           y           z       tot (Debye)
 q only:       -0.000      -0.000      -0.000
   full:       -0.000      -0.000       0.000       0.000

           -------------------------------------------------
          | TOTAL ENERGY              -25.974287063476 Eh   |
          | GRADIENT NORM               0.000082579584 Eh/α |
          | HOMO-LUMO GAP               2.705446429265 eV   |
           -------------------------------------------------

 * finished run on 2023/10/27 at 12:12:44.104
