   * xtb version 6.6.1 (8d0f1dd) compiled by 'conda@1efc2f54142f' on 2023-08-01
          program call               : xtb coord.xyz --opt --hess --pop --gfn 1

   ID    Z sym.   atoms
    1    8 O      1
    2    1 H      2, 3

          :  Hamiltonian                  GFN1-xTB          :
 * total energy  :    -5.7687716 Eh     change       -0.2664535E-14 Eh
 * total energy  :    -5.7687748 Eh     change       -0.3167036E-05 Eh
   *** GEOMETRY OPTIMIZATION CONVERGED AFTER 2 ITERATIONS ***

 final structure:
================
3
 xtb: 6.6.1 (8d0f1dd)
O            1.07033817075195       -0.01762265851733        0.04968207191591
H            2.02855152174605       -0.00787658426846        0.03293347001731
H            0.76924030750200        0.43997924278580       -0.73670554193322

          :  Hamiltonian                  GFN1-xTB          :
         :: total energy              -5.768774789328 Eh    ::
         :: gradient norm              0.000441792154 Eh/a0 ::
         :: HOMO-LUMO gap              9.346145868344 eV    ::
         :: SCC energy                -5.806392002074 Eh    ::
         :: repulsion energy           0.037754782931 Eh    ::

    * Orbital Energies and Occupations

         #    Occupation            Energy/Eh            Energy/eV
      -------------------------------------------------------------
         1        2.0000           -0.7579709             -20.6254
         2        2.0000           -0.6124863             -16.6666
         3        2.0000           -0.5461236             -14.8608
         4        2.0000           -0.4999445             -13.6042 (HOMO)
         5                         -0.1564800              -4.2580 (LUMO)
         6                         -0.0499420              -1.3590
         7                          0.3481465               9.4735
         8                          0.4549698              12.3804
      -------------------------------------------------------------
                  HL-Gap            0.3434645 Eh            9.3461 eV

Wiberg/Mayer (AO) data.
largest (>0.10) Wiberg bond orders for each atom

     #   Z sym  total        # sym  WBO       # sym  WBO       # sym  WBO
 ---------------------------------------------------------------------------
     1   8 O    1.786 --     2 H    0.893     3 H    0.893
     2   1 H    0.894 --     1 O    0.893
     3   1 H    0.894 --     1 O    0.893
 ---------------------------------------------------------------------------

           -------------------------------------------------
          | TOTAL ENERGY               -5.768774789328 Eh   |
          | GRADIENT NORM               0.000441792154 Eh/α |
          | HOMO-LUMO GAP               9.346145868344 eV   |
           -------------------------------------------------

 * finished run on 2023/10/26 at 11:26:46.403
