   * xtb version 6.6.1 (8d0f1dd) compiled by 'conda@1efc2f54142f' on 2023-08-01
          program call               : xtb coord.xyz --tblite --opt

   ID    Z sym.   atoms
    1    8 O      1
    2    1 H      2, 3
repulsion energy          3.4293873691165E-02 Eh
dispersion energy         2.5902499706986E-11 Eh
number of electrons       8.0000000000000E+00 e
integral cutoff           1.7347787504999E+01 bohr

 * total energy  :    -5.0705443 Eh     change       -0.1379341E-11 Eh
   *** GEOMETRY OPTIMIZATION CONVERGED AFTER 1 ITERATIONS ***

 final structure:
================
3
 xtb: 6.6.1 (8d0f1dd)
O            1.07015391331798       -0.01769828395654        0.04981203402603
H            2.02952514441169       -0.00813780275851        0.03338237327689
H            0.76845094227033        0.44031608671506       -0.73728440730292

           -------------------------------------------------
          | TOTAL ENERGY               -5.070544326309 Eh   |
          | GRADIENT NORM               0.000458246618 Eh/α |
           -------------------------------------------------

 * finished run on 2023/10/27 at 12:03:58.569
