   * xtb version 6.6.1 (8d0f1dd) compiled by 'conda@1efc2f54142f' on 2023-08-01
          program call               : xtb coord.xyz --gfn 1 --opt

   ID    Z sym.   atoms
    1    1 H      1, 3
    2    8 O      2

          :  Hamiltonian                  GFN1-xTB          :
 * total energy  :    -5.7684495 Eh     change        0.2664535E-14 Eh
 * total energy  :    -5.7686912 Eh     change       -0.2416901E-03 Eh
 * total energy  :    -5.7687679 Eh     change       -0.7675907E-04 Eh
 * total energy  :    -5.7687747 Eh     change       -0.6718240E-05 Eh
 * total energy  :    -5.7687749 Eh     change       -0.2569439E-06 Eh
   *** GEOMETRY OPTIMIZATION CONVERGED AFTER 5 ITERATIONS ***

 final structure:
================
3
 xtb: 6.6.1 (8d0f1dd)
H           -0.00000000000000        0.77088618142721       -0.46798972540240
O            0.00000000000000       -0.00000000001160        0.10114745079573
H           -0.00000000000000       -0.77088618141561       -0.46798972539333

          :  Hamiltonian                  GFN1-xTB          :
         :: total energy              -5.768774912655 Eh    ::
         :: gradient norm              0.000165429304 Eh/a0 ::
         :: HOMO-LUMO gap              9.346915500976 eV    ::
         :: SCC energy                -5.806450096299 Eh    ::
         :: repulsion energy           0.037812753704 Eh    ::

    * Orbital Energies and Occupations

         #    Occupation            Energy/Eh            Energy/eV
      -------------------------------------------------------------
         1        2.0000           -0.7579994             -20.6262
         2        2.0000           -0.6124883             -16.6667
         3        2.0000           -0.5461583             -14.8617
         4        2.0000           -0.4999617             -13.6046 (HOMO)
         5                         -0.1564688              -4.2577 (LUMO)
         6                         -0.0499117              -1.3582
         7                          0.3483631               9.4794
         8                          0.4555586              12.3964
      -------------------------------------------------------------
                  HL-Gap            0.3434928 Eh            9.3469 eV

Wiberg/Mayer (AO) data.
largest (>0.10) Wiberg bond orders for each atom

     #   Z sym  total        # sym  WBO       # sym  WBO       # sym  WBO
 ---------------------------------------------------------------------------
     1   1 H    0.894 --     2 O    0.893
     2   8 O    1.786 --     1 H    0.893     3 H    0.893
     3   1 H    0.894 --     2 O    0.893
 ---------------------------------------------------------------------------

           -------------------------------------------------
          | TOTAL ENERGY               -5.768774912655 Eh   |
          | GRADIENT NORM               0.000165429304 Eh/α |
          | HOMO-LUMO GAP               9.346915500976 eV   |
           -------------------------------------------------

 * finished run on 2023/10/28 at 11:44:55.093
