   * xtb version 6.6.1 (8d0f1dd) compiled by 'conda@1efc2f54142f' on 2023-08-01
          program call               : xtb coord.xyz --opt

   ID    Z sym.   atoms
    1    8 O      1
    2    1 H      2, 3

          :  Hamiltonian                  GFN2-xTB          :
 * total energy  :    -5.0705443 Eh     change        0.1776357E-14 Eh
 * total energy  :    -5.0705444 Eh     change       -0.1170418E-06 Eh
   *** GEOMETRY OPTIMIZATION CONVERGED AFTER 2 ITERATIONS ***

 final structure:
================
3
 xtb: 6.6.1 (8d0f1dd)
O            1.07032188318985       -0.01765648553181        0.04974020354763
H            2.02931106518517       -0.00813267908086        0.03337356825089
H            0.76849705162497        0.44026916461268       -0.73720377179852

          :  Hamiltonian                  GFN2-xTB          :
         :: total energy              -5.070544440612 Eh    ::
         :: gradient norm              0.000057326562 Eh/a0 ::
         :: HOMO-LUMO gap             14.391809984508 eV    ::
         :: SCC energy                -5.104920280363 Eh    ::
         :: -> dispersion             -0.000141085082 Eh    ::
         :: repulsion energy           0.034375839725 Eh    ::

    * Orbital Energies and Occupations

         #    Occupation            Energy/Eh            Energy/eV
      -------------------------------------------------------------
         1        2.0000           -0.6800947             -18.5063
         2        2.0000           -0.5682972             -15.4642
         3        2.0000           -0.5108934             -13.9021
         4        2.0000           -0.4463935             -12.1470 (HOMO)
         5                          0.0824957               2.2448 (LUMO)
         6                          0.2514813               6.8432
      -------------------------------------------------------------
                  HL-Gap            0.5288893 Eh           14.3918 eV

     #   Z          covCN         q      C6AA      α(0)
     1   8 O        1.611    -0.565    24.357     6.661
     2   1 H        0.805     0.282     0.776     1.384
     3   1 H        0.805     0.282     0.776     1.384

Wiberg/Mayer (AO) data.
largest (>0.10) Wiberg bond orders for each atom

     #   Z sym  total        # sym  WBO       # sym  WBO       # sym  WBO
 ---------------------------------------------------------------------------
     1   8 O    1.840 --     3 H    0.920     2 H    0.920
     2   1 H    0.920 --     1 O    0.920
     3   1 H    0.920 --     1 O    0.920
 ---------------------------------------------------------------------------

molecular dipole:
                 x           y           z       tot (Debye)
 q only:        0.351       0.249      -0.429
   full:        0.504       0.358      -0.616       2.217

           -------------------------------------------------
          | TOTAL ENERGY               -5.070544440612 Eh   |
          | GRADIENT NORM               0.000057326562 Eh/α |
          | HOMO-LUMO GAP              14.391809984508 eV   |
           -------------------------------------------------

 * finished run on 2023/10/26 at 11:25:27.001
