   * xtb version 6.6.1 (8d0f1dd) compiled by 'conda@1efc2f54142f' on 2023-08-01
          program call               : xtb coord.xyz --ohess

   ID    Z sym.   atoms
    1    8 O      1
    2    1 H      2, 3

          :  Hamiltonian                  GFN2-xTB          :
 * total energy  :    -5.0705443 Eh     change       -0.4396483E-12 Eh
   *** GEOMETRY OPTIMIZATION CONVERGED AFTER 1 ITERATIONS ***

 final structure:
================
3
 xtb: 6.6.1 (8d0f1dd)
O            1.07015391331798       -0.01769828395654        0.04981203402603
H            2.02952514441169       -0.00813780275851        0.03338237327689
H            0.76845094227033        0.44031608671506       -0.73728440730292

          :  Hamiltonian                  GFN2-xTB          :
         :: gradient norm              0.000458233683 Eh/a0 ::
         :: HOMO-LUMO gap             14.381259576762 eV    ::
         :: SCC energy                -5.104838197287 Eh    ::
         :: -> dispersion             -0.000141091798 Eh    ::
         :: repulsion energy           0.034293873691 Eh    ::

    * Orbital Energies and Occupations

         #    Occupation            Energy/Eh            Energy/eV
      -------------------------------------------------------------
         1        2.0000           -0.6800634             -18.5055
         2        2.0000           -0.5682639             -15.4632
         3        2.0000           -0.5109060             -13.9025
         4        2.0000           -0.4463857             -12.1468 (HOMO)
         5                          0.0821159               2.2345 (LUMO)
         6                          0.2509125               6.8277
      -------------------------------------------------------------
                  HL-Gap            0.5285016 Eh           14.3813 eV

     #   Z          covCN         q      C6AA      α(0)
     1   8 O        1.611    -0.565    24.356     6.661
     2   1 H        0.805     0.282     0.777     1.384
     3   1 H        0.805     0.282     0.777     1.384

Wiberg/Mayer (AO) data.
largest (>0.10) Wiberg bond orders for each atom

     #   Z sym  total        # sym  WBO       # sym  WBO       # sym  WBO
 ---------------------------------------------------------------------------
     1   8 O    1.840 --     2 H    0.920     3 H    0.920
     2   1 H    0.920 --     1 O    0.920
     3   1 H    0.920 --     1 O    0.920
 ---------------------------------------------------------------------------

molecular dipole:
                 x           y           z       tot (Debye)
 q only:        0.351       0.249      -0.429
   full:        0.504       0.358      -0.616       2.218

 projected vibrational frequencies (cm⁻¹)
eigval :       -0.00    -0.00    -0.00    -0.00     0.00     0.00
eigval :     1540.46  3639.49  3648.56

   temp. (K)  partition function   enthalpy   heat capacity  entropy
                                   cal/mol     cal/K/mol   cal/K/mol   J/K/mol
 298.15  VIB   1.00                    2.605      0.065      0.010
         ROT   42.6                  888.752      2.981     10.437
         INT   42.6                  891.357      3.046     10.447
         TR   0.740E+26             1481.254      4.968     34.593
         TOT                        2372.6111     8.0140    45.0400   188.4473

       T/K    H(0)-H(T)+PV         H(T)/Eh          T*S/Eh         G(T)/Eh
   ------------------------------------------------------------------------
    298.15    0.378100E-02    0.238938E-01    0.213999E-01    0.249386E-02
   ------------------------------------------------------------------------

         :::::::::::::::::::::::::::::::::::::::::::::::::::::
         ::                  THERMODYNAMIC                  ::
         :::::::::::::::::::::::::::::::::::::::::::::::::::::
         :: total free energy          -5.068050459618 Eh   ::
         ::.................................................::
         :: total energy               -5.070544323569 Eh   ::
         :: zero point energy           0.020112815395 Eh   ::
         :: G(RRHO) w/o ZPVE           -0.017618951444 Eh   ::
         :: G(RRHO) contrib.            0.002493863951 Eh   ::
         :::::::::::::::::::::::::::::::::::::::::::::::::::::

           -------------------------------------------------
          | TOTAL ENERGY               -5.070544323569 Eh   |
          | TOTAL ENTHALPY             -5.046650511691 Eh   |
          | TOTAL FREE ENERGY          -5.068050459618 Eh   |
          | GRADIENT NORM               0.000458234030 Eh/α |
          | HOMO-LUMO GAP              14.381259577519 eV   |
           -------------------------------------------------

 * finished run on 2023/10/27 at 12:06:32.964
