   * xtb version 6.6.1 (8d0f1dd) compiled by 'conda@1efc2f54142f' on 2023-08-01
          program call               : xtb coord.xyz --opt --gfnff

   ID    Z sym.   atoms
    1    8 O      1
    2    1 H      2, 3

 * total energy  :    -0.3274057 Eh     change        0.0000000E+00 Eh
 * total energy  :    -0.3276208 Eh     change       -0.2151748E-03 Eh
 * total energy  :    -0.3276478 Eh     change       -0.2696425E-04 Eh
 * total energy  :    -0.3276527 Eh     change       -0.4935594E-05 Eh
 * total energy  :    -0.3276561 Eh     change       -0.3349712E-05 Eh
   *** GEOMETRY OPTIMIZATION CONVERGED AFTER 5 ITERATIONS ***

 final structure:
================
3
 xtb: 6.6.1 (8d0f1dd)
O            1.06485394370645       -0.02153786218080        0.05641033868640
H            2.03525621059129       -0.00733233430690        0.03199817794928
H            0.76801984570226        0.44335019648771       -0.74249851663568

         :: total energy              -0.327656091566 Eh    ::
         :: gradient norm              0.000108517774 Eh/a0 ::
         :: repulsion energy           0.027422335849 Eh    ::

           -------------------------------------------------
          | TOTAL ENERGY               -0.327656091566 Eh   |
          | GRADIENT NORM               0.000108517774 Eh/α |
           -------------------------------------------------

 * finished run on 2023/10/26 at 11:27:33.593
