   * xtb version 6.6.1 (8d0f1dd) compiled by 'conda@1efc2f54142f' on 2023-08-01
          program call               : xtb dvb_opt.xyz --opt --grad

   ID    Z sym.   atoms
    1    6 C      1-6, 11, 12, 16, 17
    2    1 H      7-10, 13-15, 18-20

          :  Hamiltonian                  GFN2-xTB          :
 * total energy  :   -26.4259394 Eh     change       -0.6016592E-09 Eh
 * total energy  :   -26.4356220 Eh     change       -0.9682665E-02 Eh
 * total energy  :   -26.4379769 Eh     change       -0.2354838E-02 Eh
 * total energy  :   -26.4381868 Eh     change       -0.2099038E-03 Eh
 * total energy  :   -26.4382378 Eh     change       -0.5102937E-04 Eh
 * total energy  :   -26.4382425 Eh     change       -0.4673027E-05 Eh
   *** GEOMETRY OPTIMIZATION CONVERGED AFTER 6 ITERATIONS ***

 final structure:
================
20
 xtb: 6.6.1 (8d0f1dd)
C            0.23214923366237       -1.39278258168054       -0.00000000000218
C            1.28957114305719       -0.47878687865945       -0.00000000000068
C            1.06669386943097        0.88062922919947        0.00000000000173
C           -0.23214923366238        1.39278258168054        0.00000000000271
C           -1.28957114305719        0.47878687865945        0.00000000000080
C           -1.06669386943097       -0.88062922919947       -0.00000000000154
H            2.30536392730251       -0.85043207440805       -0.00000000000009
H            1.91122901363026        1.55264623305998        0.00000000000254
H           -2.30536392730251        0.85043207440805        0.00000000000022
H           -1.91122901363027       -1.55264623305998       -0.00000000000238
C           -0.53042461283360        2.81781528995464        0.00000000000326
C            0.34639804353399        3.81557170591418       -0.00000000000198
H           -1.58834765134830        3.05388350630598        0.00000000000131
H            0.02454616386428        4.84276516218291       -0.00000000000345
H            1.41113387618861        3.65666064903447       -0.00000000000052
C            0.53042461283360       -2.81781528995464       -0.00000000000226
C           -0.34639804353399       -3.81557170591417        0.00000000000114
H            1.58834765134829       -3.05388350630598       -0.00000000000056
H           -0.02454616386429       -4.84276516218291        0.00000000000229
H           -1.41113387618862       -3.65666064903446       -0.00000000000036

          :  Hamiltonian                  GFN2-xTB          :
         :: total energy             -26.438242468348 Eh    ::
         :: gradient norm              0.000596789979 Eh/a0 ::
         :: HOMO-LUMO gap              3.018288171239 eV    ::
         :: SCC energy               -26.964952632523 Eh    ::
         :: -> dispersion             -0.016602451564 Eh    ::
         :: repulsion energy           0.526762174926 Eh    ::

    * Orbital Energies and Occupations

         #    Occupation            Energy/Eh            Energy/eV
      -------------------------------------------------------------
         1        2.0000           -0.6444581             -17.5366
       ...           ...                  ...                  ...
        13        2.0000           -0.4884254             -13.2907
        14        2.0000           -0.4852871             -13.2053
        15        2.0000           -0.4837500             -13.1635
        16        2.0000           -0.4742070             -12.9038
        17        2.0000           -0.4591731             -12.4947
        18        2.0000           -0.4511641             -12.2768
        19        2.0000           -0.4476291             -12.1806
        20        2.0000           -0.4311895             -11.7333
        21        2.0000           -0.4216919             -11.4748
        22        2.0000           -0.4142646             -11.2727
        23        2.0000           -0.4125697             -11.2266
        24        2.0000           -0.4033290             -10.9751
        25        2.0000           -0.3738783             -10.1737 (HOMO)
        26                         -0.2629582              -7.1555 (LUMO)
        27                         -0.2193447              -5.9687
        28                         -0.2090378              -5.6882
        29                         -0.1431179              -3.8944
        30                         -0.0658963              -1.7931
        31                          0.1046481               2.8476
        32                          0.1088234               2.9612
        33                          0.1154835               3.1425
        34                          0.1423887               3.8746
        35                          0.1460632               3.9746
        36                          0.1682171               4.5774
       ...                                ...                  ...
        50                          0.6904258              18.7874
      -------------------------------------------------------------
                  HL-Gap            0.1109200 Eh            3.0183 eV

     #   Z          covCN         q      C6AA      α(0)
     1   6 C        2.970     0.013    27.717     8.636
     2   6 C        2.926    -0.035    28.877     8.813
     3   6 C        2.921    -0.034    28.836     8.806
     4   6 C        2.970     0.013    27.717     8.636
     5   6 C        2.926    -0.035    28.877     8.813
     6   6 C        2.921    -0.034    28.836     8.806
     7   1 H        0.925     0.030     2.593     2.518
     8   1 H        0.926     0.034     2.532     2.488
     9   1 H        0.925     0.030     2.593     2.518
    10   1 H        0.926     0.034     2.532     2.488
    11   6 C        2.895    -0.030    28.746     8.791
    12   6 C        2.837    -0.086    30.139     8.997
    13   1 H        0.925     0.033     2.545     2.495
    14   1 H        0.926     0.036     2.499     2.472
    15   1 H        0.926     0.039     2.465     2.455
    16   6 C        2.895    -0.030    28.746     8.791
    17   6 C        2.837    -0.086    30.139     8.997
    18   1 H        0.925     0.033     2.545     2.495
    19   1 H        0.926     0.036     2.499     2.472
    20   1 H        0.926     0.039     2.465     2.455

Wiberg/Mayer (AO) data.
largest (>0.10) Wiberg bond orders for each atom

     #   Z sym  total        # sym  WBO       # sym  WBO       # sym  WBO
 ---------------------------------------------------------------------------
     1   6 C    3.990 --     6 C    1.363     2 C    1.362    16 C    1.098
     2   6 C    3.992 --     3 C    1.480     1 C    1.362     7 H    0.968
     3   6 C    3.992 --     2 C    1.480     4 C    1.363     8 H    0.966
     4   6 C    3.990 --     3 C    1.363     5 C    1.362    11 C    1.098
     5   6 C    3.992 --     6 C    1.480     4 C    1.362     9 H    0.968
     6   6 C    3.992 --     5 C    1.480     1 C    1.363    10 H    0.966
     7   1 H    0.999 --     2 C    0.968
     8   1 H    0.999 --     3 C    0.966
     9   1 H    0.999 --     5 C    0.968
    10   1 H    0.999 --     6 C    0.966
    11   6 C    3.991 --    12 C    1.893     4 C    1.098    13 H    0.965
    12   6 C    3.979 --    11 C    1.893    14 H    0.978    15 H    0.973
    13   1 H    0.998 --    11 C    0.965
    14   1 H    0.998 --    12 C    0.978
    15   1 H    0.998 --    12 C    0.973
    16   6 C    3.991 --    17 C    1.893     1 C    1.098    18 H    0.965
    17   6 C    3.979 --    16 C    1.893    19 H    0.978    20 H    0.973
    18   1 H    0.998 --    16 C    0.965
    19   1 H    0.998 --    17 C    0.978
    20   1 H    0.998 --    17 C    0.973
 ---------------------------------------------------------------------------

molecular dipole:
                 x           y           z       tot (Debye)
 q only:        0.000       0.000      -0.000
   full:        0.000       0.000      -0.000       0.000

           -------------------------------------------------
          | TOTAL ENERGY              -26.438242468348 Eh   |
          | GRADIENT NORM               0.000596789979 Eh/α |
          | HOMO-LUMO GAP               3.018288171239 eV   |
           -------------------------------------------------

 * finished run on 2023/12/11 at 14:11:35.816
