   * xtb version 6.4.1 (unknown) compiled by 'oda6@login1.crc.pitt.edu' on 2021-06-25
          program call               : /ihome/ghutchison/oda6/xtb/xtb-641//bin/xtb dvb_gopt_lmo.xyz --opt --lmo
          number of atoms            :                    19
          number of electrons        :                    46
          charge                     :                     0
          spin                       :                   0.0

   ID    Z sym.   atoms
    1    6 C      1-5, 10, 11, 14, 15
    2    1 H      6-9, 12, 13, 16-19

          :  Hamiltonian                  GFN2-xTB          :
 * total energy  :   -24.2659106 Eh     change       -0.2175753E-09 Eh
   *** GEOMETRY OPTIMIZATION CONVERGED AFTER 1 ITERATIONS ***

 final structure:
================
19
 xtb: 6.4.1 (unknown)
C         1.21849393805282   -0.14059588231318   -0.09077480025091
C        -0.48794418455855    1.33358248542848   -0.46367646237084
C         0.12498690365069   -0.90664326658172   -0.29495189116012
C         0.81901766831999    1.25928545596840   -0.19911008454486
C        -1.07557348252366   -0.04624843076403   -0.54424920230310
H        -1.08332578306138    2.21932149303108   -0.58984387026013
H         0.07270966953947   -1.98003993985682   -0.27513252504270
H         1.49270063612012    2.08834444241591   -0.08179445015076
H        -1.49723570866636   -0.23639559370328   -1.53677586702846
C         2.55253193197573   -0.63071297804184    0.18159028915443
C        -2.14168567021374   -0.25836038228034    0.49173028694679
H         2.63541877160799   -1.70965413508605    0.23997129189906
H        -1.81638845737764   -0.09521923614392    1.51035989703471
C         3.63258143926512    0.12352476071041    0.35429101402726
C        -3.38446697106003   -0.61242509295570    0.22450463495099
H         3.59884257627629    1.19853740113439    0.30203318015567
H        -3.72707389065602   -0.77698947015187   -0.78469958532132
H         4.59734459852731   -0.31106450359948    0.55332896455445
H        -4.11568066281773   -0.74846891261053    1.00319917970967

          :  Hamiltonian                  GFN2-xTB          :
         :: total energy             -24.265910603492 Eh    ::
         :: gradient norm              0.000716061636 Eh/a0 ::
         :: HOMO-LUMO gap              3.183742607526 eV    ::
         :: SCC energy               -24.735079066985 Eh    ::
         :: -> dispersion             -0.014579674517 Eh    ::
         :: repulsion energy           0.469180641564 Eh    ::

    * Orbital Energies and Occupations

         #    Occupation            Energy/Eh            Energy/eV
      -------------------------------------------------------------
         1        2.0000           -0.6472853             -17.6135
       ...           ...                  ...                  ...
        11        2.0000           -0.5018865             -13.6570
        12        2.0000           -0.4981047             -13.5541
        13        2.0000           -0.4817114             -13.1080
        14        2.0000           -0.4619458             -12.5702
        15        2.0000           -0.4569567             -12.4344
        16        2.0000           -0.4558263             -12.4037
        17        2.0000           -0.4479548             -12.1895
        18        2.0000           -0.4380834             -11.9209
        19        2.0000           -0.4338653             -11.8061
        20        2.0000           -0.4208019             -11.4506
        21        2.0000           -0.4068825             -11.0718
        22        2.0000           -0.4020067             -10.9392
        23        2.0000           -0.3687112             -10.0331 (HOMO)
        24                         -0.2517109              -6.8494 (LUMO)
        25                         -0.2122859              -5.7766
        26                         -0.2001757              -5.4471
        27                         -0.1055079              -2.8710
        28                          0.0973600               2.6493
        29                          0.1093828               2.9765
        30                          0.1147668               3.1230
        31                          0.1237907               3.3685
        32                          0.1388841               3.7792
        33                          0.1455388               3.9603
        34                          0.1686348               4.5888
       ...                                ...                  ...
        46                          0.7096875              19.3116
      -------------------------------------------------------------
                  HL-Gap            0.1170004 Eh            3.1837 eV

     #   Z          covCN         q      C6AA      α(0)
     1   6 C        3.043     0.007    27.822     8.651
     2   6 C        2.992    -0.042    29.038     8.839
     3   6 C        3.003    -0.047    29.163     8.859
     4   6 C        2.997    -0.040    28.980     8.831
     5   6 C        3.934    -0.019    20.848     6.489
     6   1 H        0.926     0.028     2.616     2.529
     7   1 H        0.926     0.028     2.612     2.527
     8   1 H        0.926     0.031     2.571     2.507
     9   1 H        0.924     0.062     2.176     2.307
    10   6 C        2.891    -0.028    28.699     8.783
    11   6 C        2.893    -0.016    28.421     8.741
    12   1 H        0.925     0.030     2.579     2.512
    13   1 H        0.925     0.036     2.496     2.471
    14   6 C        2.839    -0.086    30.135     8.996
    15   6 C        2.836    -0.094    30.343     9.027
    16   1 H        0.926     0.040     2.447     2.446
    17   1 H        0.926     0.038     2.478     2.461
    18   1 H        0.926     0.033     2.546     2.495
    19   1 H        0.926     0.038     2.469     2.457

Wiberg/Mayer (AO) data.
largest (>0.10) Wiberg bond orders for each atom

     #   Z sym  total        # sym  WBO       # sym  WBO       # sym  WBO
 ---------------------------------------------------------------------------
     1   6 C    3.987 --     3 C    1.697    10 C    1.104     4 C    1.098
     2   6 C    3.988 --     4 C    1.829     5 C    1.005     6 H    0.973
                             3 C    0.104
     3   6 C    3.987 --     1 C    1.697     5 C    1.013     7 H    0.973
                            14 C    0.125     2 C    0.104
     4   6 C    3.989 --     2 C    1.829     1 C    1.098     8 H    0.969
     5   6 C    3.996 --     3 C    1.013     2 C    1.005    11 C    0.979
                             9 H    0.924
     6   1 H    0.999 --     2 C    0.973
     7   1 H    0.999 --     3 C    0.973
     8   1 H    0.998 --     4 C    0.969
     9   1 H    0.992 --     5 C    0.924
    10   6 C    3.992 --    14 C    1.891     1 C    1.104    12 H    0.965
    11   6 C    3.985 --    15 C    1.971     5 C    0.979    13 H    0.967
    12   1 H    0.999 --    10 C    0.965
    13   1 H    0.999 --    11 C    0.967
    14   6 C    3.983 --    10 C    1.891    18 H    0.979    16 H    0.975
                             3 C    0.125
    15   6 C    3.988 --    11 C    1.971    17 H    0.975    19 H    0.975
    16   1 H    0.998 --    14 C    0.975
    17   1 H    0.999 --    15 C    0.975
    18   1 H    0.998 --    14 C    0.979
    19   1 H    0.996 --    15 C    0.975
 ---------------------------------------------------------------------------

molecular dipole:
                 x           y           z       tot (Debye)
 q only:       -0.158      -0.027      -0.064
   full:       -0.178      -0.038      -0.068       0.495

           -------------------------------------------------
          | TOTAL ENERGY              -24.265910603492 Eh   |
          | GRADIENT NORM               0.000716061636 Eh/α |
          | HOMO-LUMO GAP               3.183742607526 eV   |
           -------------------------------------------------

 * finished run on 2022/05/03 at 13:50:40.808
