   * xtb version 6.4.1 (unknown) compiled by 'oda6@login1.crc.pitt.edu' on 2021-06-25
          program call               : /ihome/ghutchison/oda6/xtb/xtb-641//bin/xtb water_gopt_lmo.xyz --opt --lmo
          number of atoms            :                     3
          number of electrons        :                     8
          charge                     :                     0
          spin                       :                   0.0

   ID    Z sym.   atoms
    1    8 O      1
    2    1 H      2, 3

          :  Hamiltonian                  GFN2-xTB          :
 * total energy  :    -5.0705443 Eh     change       -0.2069456E-12 Eh
   *** GEOMETRY OPTIMIZATION CONVERGED AFTER 1 ITERATIONS ***

 final structure:
================
3
 xtb: 6.4.1 (unknown)
O         1.07015391331798   -0.01769828395654    0.04981203402603
H         2.02952514441169   -0.00813780275851    0.03338237327689
H         0.76845094227033    0.44031608671506   -0.73728440730292

          :  Hamiltonian                  GFN2-xTB          :
         :: total energy              -5.070544323637 Eh    ::
         :: gradient norm              0.000458106902 Eh/a0 ::
         :: HOMO-LUMO gap             14.381263565167 eV    ::
         :: SCC energy                -5.104838225953 Eh    ::
         :: -> dispersion             -0.000141091796 Eh    ::
         :: repulsion energy           0.034293902290 Eh    ::

    * Orbital Energies and Occupations

         #    Occupation            Energy/Eh            Energy/eV
      -------------------------------------------------------------
         1        2.0000           -0.6800634             -18.5055
         2        2.0000           -0.5682639             -15.4632
         3        2.0000           -0.5109060             -13.9025
         4        2.0000           -0.4463857             -12.1468 (HOMO)
         5                          0.0821160               2.2345 (LUMO)
         6                          0.2509127               6.8277
      -------------------------------------------------------------
                  HL-Gap            0.5285017 Eh           14.3813 eV

     #   Z          covCN         q      C6AA      α(0)
     1   8 O        1.611    -0.565    24.356     6.661
     2   1 H        0.805     0.282     0.777     1.384
     3   1 H        0.805     0.282     0.777     1.384

Wiberg/Mayer (AO) data.
largest (>0.10) Wiberg bond orders for each atom

     #   Z sym  total        # sym  WBO       # sym  WBO       # sym  WBO
 ---------------------------------------------------------------------------
     1   8 O    1.840 --     2 H    0.920     3 H    0.920
     2   1 H    0.920 --     1 O    0.920
     3   1 H    0.920 --     1 O    0.920
 ---------------------------------------------------------------------------

molecular dipole:
                 x           y           z       tot (Debye)
 q only:        0.351       0.249      -0.429
   full:        0.504       0.358      -0.616       2.218

           -------------------------------------------------
          | TOTAL ENERGY               -5.070544323637 Eh   |
          | GRADIENT NORM               0.000458106902 Eh/α |
          | HOMO-LUMO GAP              14.381263565167 eV   |
           -------------------------------------------------

 * finished run on 2022/05/03 at 14:06:39.873
